                               Psi4 1.3.2 release

  ==> Input File <==

--------------------------------------------------------------------------
memory 300 mb

molecule {
  O    0.000000000000    0.000000000000   -0.072001491711
  H    0.000000000000   -0.756125826500    0.571357961730
  H   -0.000000000000    0.756125826500    0.571357961730
}

set basis sto-3g
energy('scf')
--------------------------------------------------------------------------

    Molecular point group: c2v

    Geometry (in Angstrom), charge = 0, multiplicity = 1:

       Center              X                  Y                   Z               Mass
    ------------   -----------------  -----------------  -----------------  -----------------
         O            0.000000000000     0.000000000000    -0.072001491711    15.994914619570
         H            0.000000000000    -0.756125826500     0.571357961730     1.007825032230
         H           -0.000000000000     0.756125826500     0.571357961730     1.007825032230

  Charge       = 0
  Multiplicity = 1
  Basis Set: STO-3G
    Blend: STO-3G
  Basis Set: (STO-3G AUX)
    Blend: DEF2-SVP-JKFIT

    Orbital Energies [Eh]
    ---------------------

    Doubly Occupied:

       1A1   -20.253182     2A1    -1.256810     1B2    -0.590755
       3A1    -0.461195     1B1    -0.392988

  @DF-RHF Final Energy:   -74.96594183356197

   => Energetics <=

    Nuclear Repulsion Energy =              8.8782267575715181
    One-Electron Energy =                -121.7784809543334177
    Two-Electron Energy =                  37.9343123631999148
    Total Energy =                        -74.9659418335619705

  Dipole Moment: [D]
     X:     0.0000      Y:     0.0000      Z:     1.7087     Total:     1.7087

*** Psi4 exiting successfully. Buy a developer a beer!
