                               Psi4 1.3.2 release

  ==> Input File <==

--------------------------------------------------------------------------
memory 300 mb

molecule {
  O    0.000000000000    0.000000000000   -0.064716289329
  H    0.000000000000   -0.747182350068    0.513547237471
  H   -0.000000000000    0.747182350068    0.513547237471
}

set basis sto-3g
energy('scf')
--------------------------------------------------------------------------

    Molecular point group: c2v

    Geometry (in Angstrom), charge = 0, multiplicity = 1:

       Center              X                  Y                   Z               Mass
    ------------   -----------------  -----------------  -----------------  -----------------
         O            0.000000000000     0.000000000000    -0.064716289329    15.994914619570
         H            0.000000000000    -0.747182350068     0.513547237471     1.007825032230
         H           -0.000000000000     0.747182350068     0.513547237471     1.007825032230

  Charge       = 0
  Multiplicity = 1
  Basis Set: STO-3G
    Blend: STO-3G
  Basis Set: (STO-3G AUX)
    Blend: DEF2-SVP-JKFIT

    Orbital Energies [Eh]
    ---------------------

    Doubly Occupied:

       1A1   -20.240536     2A1    -1.274912     1B2    -0.624549
       3A1    -0.454488     1B1    -0.392124

  @DF-RHF Final Energy:   -74.96080669718086

   => Energetics <=

    Nuclear Repulsion Energy =              9.3155098303704698
    One-Electron Energy =                -122.5794069016710779
    Two-Electron Energy =                  38.3030903741197477
    Total Energy =                        -74.9608066971808569

  Dipole Moment: [D]
     X:     0.0000      Y:     0.0000      Z:     1.7416     Total:     1.7416

*** Psi4 exiting successfully. Buy a developer a beer!
