                               Psi4 1.3.2 release

  ==> Input File <==

--------------------------------------------------------------------------
memory 300 mb

molecule {
  O    0.000000000000    0.000000000000   -0.072222813451
  H    0.000000000000   -0.754262179868    0.573114230049
  H   -0.000000000000    0.754262179868    0.573114230049
}

set basis sto-3g
energy('scf')
--------------------------------------------------------------------------

    Molecular point group: c2v

    Geometry (in Angstrom), charge = 0, multiplicity = 1:

       Center              X                  Y                   Z               Mass
    ------------   -----------------  -----------------  -----------------  -----------------
         O            0.000000000000     0.000000000000    -0.072222813451    15.994914619570
         H            0.000000000000    -0.754262179868     0.573114230049     1.007825032230
         H           -0.000000000000     0.754262179868     0.573114230049     1.007825032230

  Charge       = 0
  Multiplicity = 1
  Basis Set: STO-3G
    Blend: STO-3G
  Basis Set: (STO-3G AUX)
    Blend: DEF2-SVP-JKFIT

    Orbital Energies [Eh]
    ---------------------

    Doubly Occupied:

       1A1   -20.253515     2A1    -1.257200     1B2    -0.590267
       3A1    -0.461934     1B1    -0.393193

  @DF-RHF Final Energy:   -74.96591840011382

   => Energetics <=

    Nuclear Repulsion Energy =              8.8802437569144566
    One-Electron Energy =                -121.7801110621775393
    Two-Electron Energy =                  37.9339489051492578
    Total Energy =                        -74.9659184001138215

  Dipole Moment: [D]
     X:     0.0000      Y:     0.0000      Z:     1.7107     Total:     1.7107

*** Psi4 exiting successfully. Buy a developer a beer!
