                               Psi4 1.3.2 release

  ==> Input File <==

--------------------------------------------------------------------------
memory 300 mb

molecule {
  O    0.000000000000    0.000000000000   -0.070948492967
  H    0.000000000000   -0.759204600868    0.563002034633
  H   -0.000000000000    0.759204600868    0.563002034633
}

set basis sto-3g
energy('scf')
--------------------------------------------------------------------------

    Molecular point group: c2v

    Geometry (in Angstrom), charge = 0, multiplicity = 1:

       Center              X                  Y                   Z               Mass
    ------------   -----------------  -----------------  -----------------  -----------------
         O            0.000000000000     0.000000000000    -0.070948492967    15.994914619570
         H            0.000000000000    -0.759204600868     0.563002034633     1.007825032230
         H           -0.000000000000     0.759204600868     0.563002034633     1.007825032230

  Charge       = 0
  Multiplicity = 1
  Basis Set: STO-3G
    Blend: STO-3G
  Basis Set: (STO-3G AUX)
    Blend: DEF2-SVP-JKFIT

    Orbital Energies [Eh]
    ---------------------

    Doubly Occupied:

       1A1   -20.251462     2A1    -1.257458     1B2    -0.594446
       3A1    -0.459193     1B1    -0.392469

  @DF-RHF Final Energy:   -74.96598727788461

   => Energetics <=

    Nuclear Repulsion Energy =              8.9087969175244908
    One-Electron Energy =                -121.8395169406583705
    Two-Electron Energy =                  37.9647327452492718
    Total Energy =                        -74.9659872778846079

  Dipole Moment: [D]
     X:     0.0000      Y:     0.0000      Z:     1.7079     Total:     1.7079

*** Psi4 exiting successfully. Buy a developer a beer!
