                               Psi4 1.3.2 release

  ==> Input File <==

--------------------------------------------------------------------------
memory 300 mb

molecule {
  O    0.000000000000   -0.000000000000   -0.072222813500
  H    0.000000000000   -0.756125826500    0.573114230000
  H   -0.000000000000    0.756125826500    0.573114230000
}

set basis sto-3g
energy('scf')
--------------------------------------------------------------------------

    Molecular point group: c2v

    Geometry (in Angstrom), charge = 0, multiplicity = 1:

       Center              X                  Y                   Z               Mass
    ------------   -----------------  -----------------  -----------------  -----------------
         O            0.000000000000     0.000000000000    -0.072222813451    15.994914619570
         H            0.000000000000    -0.756125826500     0.573114230049     1.007825032230
         H           -0.000000000000     0.756125826500     0.573114230049     1.007825032230

  Charge       = 0
  Multiplicity = 1
  Basis Set: STO-3G
    Blend: STO-3G
  Basis Set: (STO-3G AUX)
    Blend: DEF2-SVP-JKFIT

    Orbital Energies [Eh]
    ---------------------

    Doubly Occupied:

       1A1   -20.253549     2A1    -1.256382     1B2    -0.589817
       3A1    -0.461435     1B1    -0.393040

  @DF-RHF Final Energy:   -74.96590955602673

   => Energetics <=

    Nuclear Repulsion Energy =              8.8672224959642740
    One-Electron Energy =                -121.7578219880877981
    Two-Electron Energy =                  37.9246899360967973
    Total Energy =                        -74.9659095560267303

  Dipole Moment: [D]
     X:     0.0000      Y:     0.0000      Z:     1.7079     Total:     1.7079

*** Psi4 exiting successfully. Buy a developer a beer!
