                               Psi4 1.3.2 release

  ==> Input File <==

--------------------------------------------------------------------------
memory 300 mb

molecule {
  O    0.000000000000    0.000000000000   -0.072222813451
  H    0.000000000000   -0.757989473132    0.573114230049
  H   -0.000000000000    0.757989473132    0.573114230049
}

set basis sto-3g
energy('scf')
--------------------------------------------------------------------------

    Molecular point group: c2v

    Geometry (in Angstrom), charge = 0, multiplicity = 1:

       Center              X                  Y                   Z               Mass
    ------------   -----------------  -----------------  -----------------  -----------------
         O            0.000000000000     0.000000000000    -0.072222813451    15.994914619570
         H            0.000000000000    -0.757989473132     0.573114230049     1.007825032230
         H           -0.000000000000     0.757989473132     0.573114230049     1.007825032230

  Charge       = 0
  Multiplicity = 1
  Basis Set: STO-3G
    Blend: STO-3G
  Basis Set: (STO-3G AUX)
    Blend: DEF2-SVP-JKFIT

    Orbital Energies [Eh]
    ---------------------

    Doubly Occupied:

       1A1   -20.253583     2A1    -1.255567     1B2    -0.589365
       3A1    -0.460937     1B1    -0.392889

  @DF-RHF Final Energy:   -74.96588915034680

   => Energetics <=

    Nuclear Repulsion Energy =              8.8542275097547662
    One-Electron Energy =                -121.7355555817416786
    Two-Electron Energy =                  37.9154389216401171
    Total Energy =                        -74.9658891503467970

  Dipole Moment: [D]
     X:     0.0000      Y:     0.0000      Z:     1.7050     Total:     1.7050

*** Psi4 exiting successfully. Buy a developer a beer!
