                               Psi4 1.3.2 release

  ==> Input File <==

--------------------------------------------------------------------------
memory 300 mb

molecule {
  O    0.000000000000   -0.000000000000   -0.070948493000
  H    0.000000000000   -0.761068247500    0.563002034600
  H   -0.000000000000    0.761068247500    0.563002034600
}

set basis sto-3g
energy('scf')
--------------------------------------------------------------------------

    Molecular point group: c2v

    Geometry (in Angstrom), charge = 0, multiplicity = 1:

       Center              X                  Y                   Z               Mass
    ------------   -----------------  -----------------  -----------------  -----------------
         O            0.000000000000     0.000000000000    -0.070948492967    15.994914619570
         H            0.000000000000    -0.761068247500     0.563002034633     1.007825032230
         H           -0.000000000000     0.761068247500     0.563002034633     1.007825032230

  Charge       = 0
  Multiplicity = 1
  Basis Set: STO-3G
    Blend: STO-3G
  Basis Set: (STO-3G AUX)
    Blend: DEF2-SVP-JKFIT

    Orbital Energies [Eh]
    ---------------------

    Doubly Occupied:

       1A1   -20.251489     2A1    -1.256627     1B2    -0.593972
       3A1    -0.458695     1B1    -0.392309

  @DF-RHF Final Energy:   -74.96597967516085

   => Energetics <=

    Nuclear Repulsion Energy =              8.8955744746444214
    One-Electron Energy =                -121.8169291579150837
    Two-Electron Energy =                  37.9553750081098116
    Total Energy =                        -74.9659796751608525

  Dipole Moment: [D]
     X:     0.0000      Y:     0.0000      Z:     1.7051     Total:     1.7051

*** Psi4 exiting successfully. Buy a developer a beer!
