                               Psi4 1.3.2 release

  ==> Input File <==

--------------------------------------------------------------------------
memory 300 mb

molecule {
  O    0.000000000000    0.000000000000   -0.070727171226
  H    0.000000000000   -0.761068247500    0.561245766314
  H   -0.000000000000    0.761068247500    0.561245766314
}

set basis sto-3g
energy('scf')
--------------------------------------------------------------------------

    Molecular point group: c2v

    Geometry (in Angstrom), charge = 0, multiplicity = 1:

       Center              X                  Y                   Z               Mass
    ------------   -----------------  -----------------  -----------------  -----------------
         O            0.000000000000     0.000000000000    -0.070727171226    15.994914619570
         H            0.000000000000    -0.761068247500     0.561245766314     1.007825032230
         H           -0.000000000000     0.761068247500     0.561245766314     1.007825032230

  Charge       = 0
  Multiplicity = 1
  Basis Set: STO-3G
    Blend: STO-3G
  Basis Set: (STO-3G AUX)
    Blend: DEF2-SVP-JKFIT

    Orbital Energies [Eh]
    ---------------------

    Doubly Occupied:

       1A1   -20.251110     2A1    -1.257041     1B2    -0.594904
       3A1    -0.458440     1B1    -0.392251

  @DF-RHF Final Energy:   -74.96597600104614

   => Energetics <=

    Nuclear Repulsion Energy =              8.9065010729629588
    One-Electron Energy =                -121.8374671798338369
    Two-Electron Energy =                  37.9649901058247323
    Total Energy =                        -74.9659760010461582

  Dipole Moment: [D]
     X:     0.0000      Y:     0.0000      Z:     1.7059     Total:     1.7059

*** Psi4 exiting successfully. Buy a developer a beer!
