                               Psi4 1.3.2 release

  ==> Input File <==

--------------------------------------------------------------------------
memory 300 mb

molecule {
  O    0.000000000000   -0.000000000000   -0.071240688500
  H    0.000000000000   -0.757490909000    0.565320712300
  H   -0.000000000000    0.757490909000    0.565320712300
}

set basis sto-3g
energy('scf')
--------------------------------------------------------------------------

    Molecular point group: c2v

    Geometry (in Angstrom), charge = 0, multiplicity = 1:

       Center              X                  Y                   Z               Mass
    ------------   -----------------  -----------------  -----------------  -----------------
         O            0.000000000000     0.000000000000    -0.071240688511    15.994914619570
         H            0.000000000000    -0.757490909000     0.565320712289     1.007825032230
         H           -0.000000000000     0.757490909000     0.565320712289     1.007825032230

  Charge       = 0
  Multiplicity = 1
  Basis Set: STO-3G
    Blend: STO-3G
  Basis Set: (STO-3G AUX)
    Blend: DEF2-SVP-JKFIT

    Orbital Energies [Eh]
    ---------------------

    Doubly Occupied:

       1A1   -20.251932     2A1    -1.257667     1B2    -0.593642
       3A1    -0.459985     1B1    -0.392689

  @DF-RHF Final Energy:   -74.96598957520933

   => Energetics <=

    Nuclear Repulsion Energy =              8.9064457390466867
    One-Electron Energy =                -121.8330454234196907
    Two-Electron Energy =                  37.9606101091636603
    Total Energy =                        -74.9659895752093348

  Dipole Moment: [D]
     X:     0.0000      Y:     0.0000      Z:     1.7095     Total:     1.7095

*** Psi4 exiting successfully. Buy a developer a beer!
