                               Psi4 1.3.2 release

  ==> Input File <==

--------------------------------------------------------------------------
memory 300 mb

molecule {
  O    0.000000000000    0.000000000000   -0.064494967588
  H    0.000000000000   -0.749045996700    0.511790969153
  H   -0.000000000000    0.749045996700    0.511790969153
}

set basis sto-3g
energy('scf')
--------------------------------------------------------------------------

    Molecular point group: c2v

    Geometry (in Angstrom), charge = 0, multiplicity = 1:

       Center              X                  Y                   Z               Mass
    ------------   -----------------  -----------------  -----------------  -----------------
         O            0.000000000000     0.000000000000    -0.064494967588    15.994914619570
         H            0.000000000000    -0.749045996700     0.511790969153     1.007825032230
         H           -0.000000000000     0.749045996700     0.511790969153     1.007825032230

  Charge       = 0
  Multiplicity = 1
  Basis Set: STO-3G
    Blend: STO-3G
  Basis Set: (STO-3G AUX)
    Blend: DEF2-SVP-JKFIT

    Orbital Energies [Eh]
    ---------------------

    Doubly Occupied:

       1A1   -20.240105     2A1    -1.274358     1B2    -0.624947
       3A1    -0.453661     1B1    -0.391852

  @DF-RHF Final Energy:   -74.96076737790030

   => Energetics <=

    Nuclear Repulsion Energy =              9.3120939638887794
    One-Electron Energy =                -122.5758666465775946
    Two-Electron Energy =                  38.3030053047885204
    Total Energy =                        -74.9607673779002823

  Dipole Moment: [D]
     X:     0.0000      Y:     0.0000      Z:     1.7390     Total:     1.7390

*** Psi4 exiting successfully. Buy a developer a beer!
