                               Psi4 1.3.2 release

  ==> Input File <==

--------------------------------------------------------------------------
memory 300 mb

molecule {
  O    0.000000000000    0.000000000000   -0.070948492967
  H    0.000000000000   -0.762931894132    0.563002034633
  H   -0.000000000000    0.762931894132    0.563002034633
}

set basis sto-3g
energy('scf')
--------------------------------------------------------------------------

    Molecular point group: c2v

    Geometry (in Angstrom), charge = 0, multiplicity = 1:

       Center              X                  Y                   Z               Mass
    ------------   -----------------  -----------------  -----------------  -----------------
         O            0.000000000000     0.000000000000    -0.070948492967    15.994914619570
         H            0.000000000000    -0.762931894132     0.563002034633     1.007825032230
         H           -0.000000000000     0.762931894132     0.563002034633     1.007825032230

  Charge       = 0
  Multiplicity = 1
  Basis Set: STO-3G
    Blend: STO-3G
  Basis Set: (STO-3G AUX)
    Blend: DEF2-SVP-JKFIT

    Orbital Energies [Eh]
    ---------------------

    Doubly Occupied:

       1A1   -20.251516     2A1    -1.255801     1B2    -0.593496
       3A1    -0.458196     1B1    -0.392151

  @DF-RHF Final Energy:   -74.96596033370280

   => Energetics <=

    Nuclear Repulsion Energy =              8.8823795348140138
    One-Electron Energy =                -121.7943654307421042
    Two-Electron Energy =                  37.9460255622253015
    Total Energy =                        -74.9659603337027960

  Dipole Moment: [D]
     X:     0.0000      Y:     0.0000      Z:     1.7023     Total:     1.7023

*** Psi4 exiting successfully. Buy a developer a beer!
