                               Psi4 1.3.2 release

  ==> Input File <==

--------------------------------------------------------------------------
memory 300 mb

molecule {
  O    0.000000000000    0.000000000000   -0.064937611070
  H    0.000000000000   -0.749045996700    0.515303505789
  H   -0.000000000000    0.749045996700    0.515303505789
}

set basis sto-3g
energy('scf')
--------------------------------------------------------------------------

    Molecular point group: c2v

    Geometry (in Angstrom), charge = 0, multiplicity = 1:

       Center              X                  Y                   Z               Mass
    ------------   -----------------  -----------------  -----------------  -----------------
         O            0.000000000000     0.000000000000    -0.064937611070    15.994914619570
         H            0.000000000000    -0.749045996700     0.515303505789     1.007825032230
         H           -0.000000000000     0.749045996700     0.515303505789     1.007825032230

  Charge       = 0
  Multiplicity = 1
  Basis Set: STO-3G
    Blend: STO-3G
  Basis Set: (STO-3G AUX)
    Blend: DEF2-SVP-JKFIT

    Orbital Energies [Eh]
    ---------------------

    Doubly Occupied:

       1A1   -20.240905     2A1    -1.273548     1B2    -0.623024
       3A1    -0.454284     1B1    -0.391962

  @DF-RHF Final Energy:   -74.96137092305386

   => Energetics <=

    Nuclear Repulsion Energy =              9.2892409316916282
    One-Electron Energy =                -122.5337769946986839
    Two-Electron Energy =                  38.2831651399531907
    Total Energy =                        -74.9613709230538632

  Dipole Moment: [D]
     X:     0.0000      Y:     0.0000      Z:     1.7385     Total:     1.7385

*** Psi4 exiting successfully. Buy a developer a beer!
