                               Psi4 1.3.2 release

  ==> Input File <==

--------------------------------------------------------------------------
memory 300 mb

molecule {
  O    0.000000000000    0.000000000000   -0.064716289329
  H    0.000000000000   -0.750909643332    0.513547237471
  H   -0.000000000000    0.750909643332    0.513547237471
}

set basis sto-3g
energy('scf')
--------------------------------------------------------------------------

    Molecular point group: c2v

    Geometry (in Angstrom), charge = 0, multiplicity = 1:

       Center              X                  Y                   Z               Mass
    ------------   -----------------  -----------------  -----------------  -----------------
         O            0.000000000000     0.000000000000    -0.064716289329    15.994914619570
         H            0.000000000000    -0.750909643332     0.513547237471     1.007825032230
         H           -0.000000000000     0.750909643332     0.513547237471     1.007825032230

  Charge       = 0
  Multiplicity = 1
  Basis Set: STO-3G
    Blend: STO-3G
  Basis Set: (STO-3G AUX)
    Blend: DEF2-SVP-JKFIT

    Orbital Energies [Eh]
    ---------------------

    Doubly Occupied:

       1A1   -20.240477     2A1    -1.273000     1B2    -0.623419
       3A1    -0.453460     1B1    -0.391692

  @DF-RHF Final Energy:   -74.96132658904567

   => Energetics <=

    Nuclear Repulsion Energy =              9.2858552680079693
    One-Electron Energy =                -122.5302672852022710
    Two-Electron Energy =                  38.2830854281486381
    Total Energy =                        -74.9613265890456688

  Dipole Moment: [D]
     X:     0.0000      Y:     0.0000      Z:     1.7359     Total:     1.7359

*** Psi4 exiting successfully. Buy a developer a beer!
