                               Psi4 1.3.2 release

  ==> Input File <==

--------------------------------------------------------------------------
memory 300 mb

molecule {
  O    0.000000000000    0.000000000000   -0.071169814708
  H    0.000000000000   -0.761068247500    0.564758302951
  H   -0.000000000000    0.761068247500    0.564758302951
}

set basis sto-3g
energy('scf')
--------------------------------------------------------------------------

    Molecular point group: c2v

    Geometry (in Angstrom), charge = 0, multiplicity = 1:

       Center              X                  Y                   Z               Mass
    ------------   -----------------  -----------------  -----------------  -----------------
         O            0.000000000000     0.000000000000    -0.071169814708    15.994914619570
         H            0.000000000000    -0.761068247500     0.564758302951     1.007825032230
         H           -0.000000000000     0.761068247500     0.564758302951     1.007825032230

  Charge       = 0
  Multiplicity = 1
  Basis Set: STO-3G
    Blend: STO-3G
  Basis Set: (STO-3G AUX)
    Blend: DEF2-SVP-JKFIT

    Orbital Energies [Eh]
    ---------------------

    Doubly Occupied:

       1A1   -20.251866     2A1    -1.256213     1B2    -0.593040
       3A1    -0.458947     1B1    -0.392368

  @DF-RHF Final Energy:   -74.96597455235245

   => Energetics <=

    Nuclear Repulsion Energy =              8.8846556749834615
    One-Electron Energy =                -121.7963981958335324
    Two-Electron Energy =                  37.9457679684976199
    Total Energy =                        -74.9659745523524492

  Dipole Moment: [D]
     X:     0.0000      Y:     0.0000      Z:     1.7044     Total:     1.7044

*** Psi4 exiting successfully. Buy a developer a beer!
