                               Psi4 1.3.2 release

  ==> Input File <==

--------------------------------------------------------------------------
memory 300 mb

molecule {
  O    0.000000000000    0.000000000000   -0.071240688511
  H    0.000000000000   -0.755627262368    0.565320712289
  H   -0.000000000000    0.755627262368    0.565320712289
}

set basis sto-3g
energy('scf')
--------------------------------------------------------------------------

    Molecular point group: c2v

    Geometry (in Angstrom), charge = 0, multiplicity = 1:

       Center              X                  Y                   Z               Mass
    ------------   -----------------  -----------------  -----------------  -----------------
         O            0.000000000000     0.000000000000    -0.071240688511    15.994914619570
         H            0.000000000000    -0.755627262368     0.565320712289     1.007825032230
         H           -0.000000000000     0.755627262368     0.565320712289     1.007825032230

  Charge       = 0
  Multiplicity = 1
  Basis Set: STO-3G
    Blend: STO-3G
  Basis Set: (STO-3G AUX)
    Blend: DEF2-SVP-JKFIT

    Orbital Energies [Eh]
    ---------------------

    Doubly Occupied:

       1A1   -20.251905     2A1    -1.258499     1B2    -0.594109
       3A1    -0.460484     1B1    -0.392848

  @DF-RHF Final Energy:   -74.96598202940902

   => Energetics <=

    Nuclear Repulsion Energy =              8.9196579121311483
    One-Electron Energy =                -121.8555959593449387
    Two-Electron Energy =                  37.9699560178047832
    Total Energy =                        -74.9659820294090196

  Dipole Moment: [D]
     X:     0.0000      Y:     0.0000      Z:     1.7123     Total:     1.7123

*** Psi4 exiting successfully. Buy a developer a beer!
